 &FCI NORB=  29,NELEC=10,MS2=0,
  ORBSYM=0,0,1,0,0,0,1,0,0,1,0,0,1,0,1,0,0,1,0,1,0,1,0,0,0,1,0,1,0
  ISYM=1,
 &END
 4.122410493632755    1    1    1    1
 -0.3538223023870333    1    1    2    1
 0.8744317524522246    1    1    2    2
 0.7473885033024918    1    1    3    3
 -4.067629994451855e-05    1    1    4    1
 -3.600700483429179e-06    1    1    4    2
 0.7474348050664589    1    1    4    4
 -0.1026256383364628    1    1    5    1
 0.05356833719792287    1    1    5    2
 2.84192362686754e-05    1    1    5    4
 0.8585098227385278    1    1    5    5
 -0.156637325644246    1    1    6    1
 0.1992583167033389    1    1    6    2
 6.191718794132736e-05    1    1    6    4
 -0.04504282390701825    1    1    6    5
 0.3741544309127535    1    1    6    6
 -0.2068434486924932    1    1    7    3
 0.3744030339611367    1    1    7    7
 8.533017928641303e-06    1    1    8    1
 -3.468081906835436e-05    1    1    8    2
 0.2068324168397405    1    1    8    4
 -2.146351794263294e-05    1    1    8    5
 2.290949921762703e-05    1    1    8    6
 0.3743852584258663    1    1    8    8
 -0.0001031372134432567    1    1    9    1
 0.0001049739229865074    1    1    9    2
 0.05638652066407604    1    1    9    4
 -5.648916675643084e-05    1    1    9    5
 0.0001262023009908758    1    1    9    6
 0.09704109468962134    1    1    9    8
 0.4879404020237529    1    1    9    9
 -0.05645306286412987    1    1   10    3
 0.09709226080057679    1    1   10    7
 0.4879518390431568    1    1   10   10
 0.1656919256549794    1    1   11    1
 -0.1830263408355846    1    1   11    2
 -9.896908274356633e-08    1    1   11    4
 0.114331878322045    1    1   11    5
 -0.1561778488885803    1    1   11    6
 4.305641241089425e-05    1    1   11    8
 -2.157794898986051e-05    1    1   11    9
 0.5656288995407738    1    1   11   11
 0.09840601498175236    1    1   12    1
 -0.03649478406126974    1    1   12    2
 -9.351628472931478e-05    1    1   12    4
 -0.3932723017826578    1    1   12    5
 0.03096851537091141    1    1   12    6
 -3.416748698496214e-05    1    1   12    8
 4.371674117735964e-05    1    1   12    9
 -0.1050327538220403    1    1   12   11
 0.8192614692084672    1    1   12   12
 0.3074782465469287    1    1   13    3
 -0.2280734073718739    1    1   13    7
 -0.07063249835343376    1    1   13   10
 0.7570944065656334    1    1   13   13
 -4.267036624542792e-05    1    1   14    1
 6.933933450380325e-05    1    1   14    2
 -0.3075040253269069    1    1   14    4
 0.000102989081462072    1    1   14    5
 -3.204991528557702e-05    1    1   14    6
 -0.2280776976791291    1    1   14    8
 -0.07059551204292208    1    1   14    9
 -9.185923013706161e-06    1    1   14   11
 -3.783560525757765e-05    1    1   14   12
 0.757128588467024    1    1   14   14
 0.01536185877093847    1    1   15    3
 -0.01247518198239974    1    1   15    7
 0.0007217592420005049    1    1   15   10
 0.02309961520135837    1    1   15   13
 0.5349368804886673    1    1   15   15
 8.526167179580525e-05    1    1   16    1
 -7.203280227332384e-05    1    1   16    2
 -0.01531375645339712    1    1   16    4
 -8.675664329731491e-05    1    1   16    5
 -3.666128969089346e-05    1    1   16    6
 -0.01243803997784311    1    1   16    8
 0.0007317092128572104    1    1   16    9
 -1.021057604548566e-05    1    1   16   11
 8.634390979152857e-05    1    1   16   12
 0.02304817548310044    1    1   16   14
 0.534946155839969    1    1   16   16
 0.2293312419234016    1    1   17    1
 -0.2182900873718874    1    1   17    2
 -4.349640459217039e-05    1    1   17    4
 -0.06744140649119053    1    1   17    5
 -0.1335749757575698    1    1   17    6
 4.441525678799161e-06    1    1   17    8
 -3.347289192719096e-05    1    1   17    9
 0.05029628498337895    1    1   17   11
 0.04601121408256872    1    1   17   12
 1.025149386724393e-05    1    1   17   14
 2.904128796575255e-05    1    1   17   16
 0.62360074524058    1    1   17   17
 -2.793270796835888e-05    1    1   18    3
 2.52191736358153e-05    1    1   18    7
 1.890939408654747e-05    1    1   18   10
 -4.290460248598617e-05    1    1   18   13
 -1.524863455638294e-05    1    1   18   15
 0.4557158910962418    1    1   18   18
 0.1477656120943138    1    1   19    1
 -0.1157582503489565    1    1   19    2
 -4.859213212874168e-05    1    1   19    4
 -0.07148372601071973    1    1   19    5
 -0.07161890822606885    1    1   19    6
 -3.054728114984716e-05    1    1   19    8
 -0.0001142014135978163    1    1   19    9
 0.07615814901608157    1    1   19   11
 0.09922888525353774    1    1   19   12
 3.802827282569296e-05    1    1   19   14
 5.433639589551367e-05    1    1   19   16
 0.06192926476197384    1    1   19   17
 0.5535468117664556    1    1   19   19
 -0.01362992464680255    1    1   20    3
 0.005320494042198323    1    1   20    7
 -0.0144076623357025    1    1   20   10
 -0.01909157261475814    1    1   20   13
 -0.02210295020854083    1    1   20   15
 1.869730769677595e-05    1    1   20   18
 0.4531831113784219    1    1   20   20
 -5.711257602255318e-05    1    1   21    1
 4.771173019358494e-05    1    1   21    2
 0.01366866932176273    1    1   21    4
 3.494590259954579e-05    1    1   21    5
 2.916025444227013e-05    1    1   21    6
 0.005357428219826372    1    1   21    8
 -0.01435772970955706    1    1   21    9
 -2.005997572008327e-05    1    1   21   11
 -4.766080579247029e-05    1    1   21   12
 -0.01916422456963804    1    1   21   14
 -0.02207867330351435    1    1   21   16
 -3.80215430335179e-05    1    1   21   17
 -2.793082689700247e-05    1    1   21   19
 0.4531808777961293    1    1   21   21
 -0.09936619738030802    1    1   22    3
 0.09497567907260421    1    1   22    7
 0.1535920944815151    1    1   22   10
 -0.2291864941856093    1    1   22   13
 -0.03213768557426525    1    1   22   15
 4.429771101212319e-05    1    1   22   18
 0.003978485134230138    1    1   22   20
 0.7168334103903121    1    1   22   22
 -3.292103830395422e-05    1    1   23    1
 7.108853981043261e-06    1    1   23    2
 0.0993314589452011    1    1   23    4
 -5.171752438338148e-05    1    1   23    5
 4.105822902901601e-05    1    1   23    6
 0.09494396037964245    1    1   23    8
 0.1535565547057536    1    1   23    9
 3.297994183943701e-05    1    1   23   11
 4.388377860855778e-05    1    1   23   12
 -0.2291710921538604    1    1   23   14
 -0.03208572671433272    1    1   23   16
 -3.283134204339685e-05    1    1   23   17
 -7.301356820547159e-05    1    1   23   19
 0.004055568069251208    1    1   23   21
 0.7168314145369575    1    1   23   23
 -0.1205953380694263    1    1   24    1
 0.08573950201314277    1    1   24    2
 -1.193253538961629e-05    1    1   24    4
 -0.06245334781787454    1    1   24    5
 0.0687261802913475    1    1   24    6
 -1.708470113285807e-05    1    1   24    8
 7.001134688628214e-05    1    1   24    9
 -0.1845537290154232    1    1   24   11
 0.08083111271061325    1    1   24   12
 3.525910331883177e-05    1    1   24   14
 3.210041973748098e-05    1    1   24   16
 0.004762593473399749    1    1   24   17
 -0.112215230275583    1    1   24   19
 2.979912829471998e-05    1    1   24   21
 -7.010798239093233e-05    1    1   24   23
 0.6634370557531396    1    1   24   24
 9.437411279913855e-05    1    1   25    1
 -6.309208456960063e-05    1    1   25    2
 -0.01286731630778101    1    1   25    4
 4.557335981487405e-06    1    1   25    5
 -4.260525712181852e-05    1    1   25    6
 -0.009331387048660156    1    1   25    8
 -0.02352445368831703    1    1   25    9
 5.699810025840188e-05    1    1   25   11
 3.013743092680309e-06    1    1   25   12
 0.02990582319850916    1    1   25   14
 -0.1564275157668746    1    1   25   16
 0.0001385693497089384    1    1   25   17
 1.263267666610659e-05    1    1   25   19
 0.04872972636830894    1    1   25   21
 -0.006180592546595829    1    1   25   23
 1.899814069079234e-05    1    1   25   24
 0.6869812932591889    1    1   25   25
 0.01288306848628247    1    1   26    3
 -0.009342293792021632    1    1   26    7
 -0.02352693579668875    1    1   26   10
 0.02994210008964973    1    1   26   13
 -0.1564179163839568    1    1   26   15
 -1.98146206395037e-05    1    1   26   18
 0.04873741735061302    1    1   26   20
 -0.006184315880807998    1    1   26   22
 0.6869992946308487    1    1   26   26
 -0.1949267889229475    1    1   27    1
 0.1392028717174431    1    1   27    2
 -7.531761910480079e-06    1    1   27    4
 -0.05916985569860871    1    1   27    5
 0.08801748264653983    1    1   27    6
 -2.227909766604903e-05    1    1   27    8
 3.01549425833915e-05    1    1   27    9
 -0.1546069807265643    1    1   27   11
 0.1172690425488632    1    1   27   12
 2.590711782399743e-05    1    1   27   14
 -0.0001016841583224397    1    1   27   16
 -0.1788011771471349    1    1   27   17
 0.02135382820416215    1    1   27   19
 2.879651370830156e-05    1    1   27   21
 -5.054682505109338e-05    1    1   27   23
 0.004120887717674496    1    1   27   24
 2.180678245790931e-06    1    1   27   25
 0.7299453928630317    1    1   27   27
 -0.1619807752308476    1    1   28    3
 0.08962483289236281    1    1   28    7
 -0.009557136611245853    1    1   28   10
 -0.2995882342686027    1    1   28   13
 -0.008162781863606432    1    1   28   15
 1.594127028674343e-05    1    1   28   18
 0.01516177034513142    1    1   28   20
 0.0144291502697011    1    1   28   22
 -0.002236486903480227    1    1   28   26
 0.8448746840047329    1    1   28   28
 8.975873128472452e-05    1    1   29    1
 -8.895015217599276e-05    1    1   29    2
 0.162029260638125    1    1   29    4
 2.745142678142356e-05    1    1   29    5
 -2.806538092978369e-05    1    1   29    6
 0.08964292010937516    1    1   29    8
 -0.009588512290537712    1    1   29    9
 3.757574090514321e-05    1    1   29   11
 -0.0001254136768470447    1    1   29   12
 -0.2996406314263075    1    1   29   14
 -0.008123753840642518    1    1   29   16
 3.962169802484378e-05    1    1   29   17
 1.597300524041006e-05    1    1   29   19
 0.01516580996302977    1    1   29   21
 0.01444361944338744    1    1   29   23
 -2.612635189164172e-05    1    1   29   24
 -0.002224777180243833    1    1   29   25
 -4.733406772984545e-05    1    1   29   27
 0.8449670062477441    1    1   29   29
 -0.3538223023870332    2    1    1    1
 0.04901502083073282    2    1    2    1
 -0.0103531287959384    2    1    2    2
 -0.004707160475500268    2    1    3    3
 3.5354963765669e-06    2    1    4    1
 -3.284342558009321e-06    2    1    4    2
 -0.004706932279497179    2    1    4    4
 0.01141369842865934    2    1    5    1
 -0.005395538834295691    2    1    5    2
 -1.463698937488352e-06    2    1    5    4
 -0.01003874357561912    2    1    5    5
 0.02258637530268643    2    1    6    1
 -0.004687047998339719    2    1    6    2
 -1.760949260325624e-06    2    1    6    4
 -0.0007372575415638362    2    1    6    5
 -0.00213583068618525    2    1    6    6
 0.003234178868441829    2    1    7    3
 -0.001847399388659965    2    1    7    7
 -2.352480065009245e-06    2    1    8    1
 -3.292684765829148e-07    2    1    8    2
 -0.003234296871517659    2    1    8    4
 -3.799537752070306e-08    2    1    8    5
 -9.370353928290566e-07    2    1    8    6
 -0.001846925756266795    2    1    8    8
 1.450113326647806e-05    2    1    9    1
 -3.13933602329846e-06    2    1    9    2
 -0.0019978450956825    2    1    9    4
 -5.352479240436927e-07    2    1    9    5
 -1.788744849963377e-06    2    1    9    6
 -0.001040020577762638    2    1    9    8
 -0.0003448106738189985    2    1    9    9
 0.001997759741980447    2    1   10    3
 -0.001040579484512663    2    1   10    7
 -0.0003456123054959282    2    1   10   10
 -0.02446008178631805    2    1   11    1
 0.004777320384543964    2    1   11    2
 -9.834741969306467e-08    2    1   11    4
 -0.0007548770416711593    2    1   11    5
 0.002450188318886073    2    1   11    6
 1.88634503748716e-09    2    1   11    8
 2.141298785533972e-06    2    1   11    9
 -0.002981205260873578    2    1   11   11
 -0.01013652524791423    2    1   12    1
 0.003798804035937093    2    1   12    2
 2.516858376058495e-06    2    1   12    4
 0.01176306664699    2    1   12    5
 0.0004141404953580163    2    1   12    6
 6.10389418522293e-07    2    1   12    8
 -3.670331826362248e-07    2    1   12    9
 0.002535242801337562    2    1   12   11
 -0.01450797918468841    2    1   12   12
 -0.007440542143419362    2    1   13    3
 0.004593202343932938    2    1   13    7
 0.002061218071987187    2    1   13   10
 -0.0111424693841891    2    1   13   13
 7.92162921087666e-06    2    1   14    1
 -8.760877032335831e-07    2    1   14    2
 0.007441475472877086    2    1   14    4
 -3.020349772923605e-06    2    1   14    5
 1.502420676553331e-06    2    1   14    6
 0.004593080557844183    2    1   14    8
 0.002059271160158766    2    1   14    9
 -1.0492801743902e-06    2    1   14   11
 1.226931277006586e-06    2    1   14   12
 -0.01114328764898745    2    1   14   14
 -0.001540884680353844    2    1   15    3
 0.0006362204757793063    2    1   15    7
 0.000412508771371926    2    1   15   10
 -0.000884019425520665    2    1   15   13
 0.0001239340169286367    2    1   15   15
 -1.072085818359485e-05    2    1   16    1
 2.498687261491893e-06    2    1   16    2
 0.001538619052977773    2    1   16    4
 4.021934867152906e-06    2    1   16    5
 9.697789894031825e-07    2    1   16    6
 0.0006349170331955528    2    1   16    8
 0.000411341386543882    2    1   16    9
 2.084042626864721e-07    2    1   16   11
 -4.528682937705628e-06    2    1   16   12
 -0.0008817812776548277    2    1   16   14
 0.0001245879751038273    2    1   16   16
 -0.03125164282215786    2    1   17    1
 0.007330805437889942    2    1   17    2
 2.384001750017817e-06    2    1   17    4
 0.002420623686300733    2    1   17    5
 0.003191045446142264    2    1   17    6
 7.353167368038771e-07    2    1   17    8
 2.133792065442121e-06    2    1   17    9
 -0.002919128683159041    2    1   17   11
 -0.004042800877043801    2    1   17   12
 -1.147735223436573e-06    2    1   17   14
 -2.763823759134192e-06    2    1   17   16
 -0.005161231229112393    2    1   17   17
 1.313226820199244e-06    2    1   18    3
 -8.661167811616008e-07    2    1   18    7
 -6.362249280623619e-07    2    1   18   10
 1.99551159886666e-06    2    1   18   13
 -5.938528244051832e-07    2    1   18   15
 0.0005571155767509009    2    1   18   18
 -0.01974940896595978    2    1   19    1
 0.004551825198578332    2    1   19    2
 3.015153557264359e-06    2    1   19    4
 0.004047883040460589    2    1   19    5
 0.001767906556593194    2    1   19    6
 1.150887616154206e-06    2    1   19    8
 1.370751253697405e-06    2    1   19    9
 -0.001790182522820337    2    1   19   11
 -0.004240901736257383    2    1   19   12
 -2.284458955143238e-06    2    1   19   14
 -1.445717009023999e-06    2    1   19   16
 -0.003214985259812004    2    1   19   17
 -0.002735929772020151    2    1   19   19
 0.0001285121431644476    2    1   20    3
 -0.0002507911603354999    2    1   20    7
 -0.0005509625855982649    2    1   20   10
 5.673123580138811e-05    2    1   20   13
 0.0004011288525157096    2    1   20   15
 6.356353070048564e-07    2    1   20   18
 0.0003947963862988574    2    1   20   20
 7.354995322600231e-06    2    1   21    1
 -1.751604014640812e-06    2    1   21    2
 -0.0001299336805208762    2    1   21    4
 -1.665382490266494e-06    2    1   21    5
 -8.150185113302887e-07    2    1   21    6
 -0.0002517329420569838    2    1   21    8
 -0.0005513189105099549    2    1   21    9
 7.295646779239308e-07    2    1   21   11
 1.934944445157297e-06    2    1   21   12
 5.939367001395752e-05    2    1   21   14
 0.0004022834960817659    2    1   21   16
 8.358858257644423e-07    2    1   21   17
 1.723722449410299e-06    2    1   21   19
 0.00039465439296223    2    1   21   21
 0.006202224422634974    2    1   22    3
 -0.003880213155803639    2    1   22    7
 -0.002018291264063693    2    1   22   10
 0.008775041217644651    2    1   22   13
 0.0005271673069852901    2    1   22   15
 -1.52309687043627e-06    2    1   22   18
 -0.0004578161540951302    2    1   22   20
 -0.006694000783671821    2    1   22   22
 3.882121603929932e-06    2    1   23    1
 -7.86632955524186e-07    2    1   23    2
 -0.006203226825538898    2    1   23    4
 1.127333147695856e-06    2    1   23    5
 -1.792904891899199e-06    2    1   23    6
 -0.003880219378367282    2    1   23    8
 -0.002016638335182834    2    1   23    9
 6.835489928217767e-07    2    1   23   11
 -7.887303044523829e-08    2    1   23   12
 0.008775477509607769    2    1   23   14
 0.0005254805446146824    2    1   23   16
 1.671453072367942e-06    2    1   23   17
 2.484929099659906e-06    2    1   23   19
 -0.0004602234312405268    2    1   23   21
 -0.006692005041919941    2    1   23   23
 0.01842718016246473    2    1   24    1
 -0.003919523645248332    2    1   24    2
 1.564977168780859e-06    2    1   24    4
 0.0002432429154265523    2    1   24    5
 -0.00197575186944049    2    1   24    6
 1.221239142972125e-06    2    1   24    8
 -9.647785205569499e-07    2    1   24    9
 0.002564218398559055    2    1   24   11
 -0.001860931078156465    2    1   24   12
 -1.953964236980893e-06    2    1   24   14
 3.77266565322201e-07    2    1   24   16
 0.002013603163503555    2    1   24   17
 0.001894455749182497    2    1   24   19
 -5.388763355823399e-07    2    1   24   21
 6.596293679762971e-07    2    1   24   23
 -0.002395455312246242    2    1   24   24
 -1.365150768187929e-05    2    1   25    1
 3.670858110792577e-06    2    1   25    2
 -0.0007951185646854545    2    1   25    4
 -1.851514210590877e-06    2    1   25    5
 1.925379267789891e-06    2    1   25    6
 -0.0004992114867187313    2    1   25    8
 -0.0003568131090215924    2    1   25    9
 -3.044854167552101e-06    2    1   25   11
 1.669082034301871e-06    2    1   25   12
 0.0004051678584145574    2    1   25   14
 0.0007720972706073327    2    1   25   16
 -2.415744740228236e-06    2    1   25   17
 -8.317714963725265e-07    2    1   25   19
 -0.0004602108757857629    2    1   25   21
 -9.774622778146536e-06    2    1   25   23
 1.297709999569359e-06    2    1   25   24
 -0.001433344037130948    2    1   25   25
 0.0007960780531924676    2    1   26    3
 -0.0004998427645829238    2    1   26    7
 -0.0003571607090832235    2    1   26   10
 0.0004056636397556596    2    1   26   13
 0.000772140622820364    2    1   26   15
 -5.725938182522905e-10    2    1   26   18
 -0.0004605440817188829    2    1   26   20
 -9.842987211936662e-06    2    1   26   22
 -0.001433392962294522    2    1   26   26
 0.02957603543897269    2    1   27    1
 -0.006977127440773009    2    1   27    2
 -8.307698162904687e-08    2    1   27    4
 0.003292851959363612    2    1   27    5
 -0.003942296823968358    2    1   27    6
 2.44548165795497e-07    2    1   27    8
 -3.034136109448257e-06    2    1   27    9
 0.00505199401357647    2    1   27   11
 -0.004306172704696808    2    1   27   12
 -1.109247969541351e-07    2    1   27   14
 5.80599004923698e-07    2    1   27   16
 0.004159968102634214    2    1   27   17
 0.00137039916259757    2    1   27   19
 -7.241020270624475e-07    2    1   27   21
 -1.200887740748648e-06    2    1   27   23
 -0.003144327771893359    2    1   27   24
 2.500061662744135e-06    2    1   27   25
 -0.00717487601729045    2    1   27   27
 0.005780664777507869    2    1   28    3
 -0.003479095001077535    2    1   28    7
 -0.001004656263519055    2    1   28   10
 0.008953025688274789    2    1   28   13
 0.0006547079570300062    2    1   28   15
 -1.521279130398225e-06    2    1   28   18
 9.534914724862301e-05    2    1   28   20
 -0.005954262463095133    2    1   28   22
 -6.850197133973061e-05    2    1   28   26
 -0.009417313310020218    2    1   28   28
 -1.599450593963226e-05    2    1   29    1
 3.221146365158933e-06    2    1   29    2
 -0.005781964484788414    2    1   29    4
 -7.299936003654667e-07    2    1   29    5
 6.666723695974008e-07    2    1   29    6
 -0.003479346077785752    2    1   29    8
 -0.001002746898811911    2    1   29    9
 -1.214008218733955e-06    2    1   29   11
 3.574704971697166e-06    2    1   29   12
 0.008954984319418591    2    1   29   14
 0.0006528526605785108    2    1   29   16
 -3.211822005997091e-07    2    1   29   17
 1.753335633353373e-06    2    1   29   19
 9.361861824238782e-05    2    1   29   21
 -0.005954690119323667    2    1   29   23
 2.583820284159064e-06    2    1   29   24
 -6.845162220147842e-05    2    1   29   25
 3.179197286854403e-06    2    1   29   27
 -0.009422056464587854    2    1   29   29
 0.8744317524522247    2    2    1    1
 -0.01035312879593837    2    2    2    1
 0.6345854312116946    2    2    2    2
 0.5807712570604395    2    2    3    3
 -7.064920468771451e-06    2    2    4    1
 -4.406652982475884e-05    2    2    4    2
 0.5808148262991638    2    2    4    4
 -0.01071835692883636    2    2    5    1
 -0.01888225797316611    2    2    5    2
 6.66001611061366e-06    2    2    5    4
 0.581442160091593    2    2    5    5
 -0.003076230884978313    2    2    6    1
 0.09474232398688376    2    2    6    2
 2.850504797445573e-05    2    2    6    4
 -0.02933898184300857    2    2    6    5
 0.3283345561244947    2    2    6    6
 -0.1030385716002307    2    2    7    3
 0.320353566426644    2    2    7    7
 -2.774067194982328e-06    2    2    8    1
 -2.581368978925946e-05    2    2    8    2
 0.1030250287273432    2    2    8    4
 -1.62007887478307e-05    2    2    8    5
 2.48146007484652e-07    2    2    8    6
 0.3203531023429451    2    2    8    8
 -2.653850002198887e-06    2    2    9    1
 3.792989421104006e-05    2    2    9    2
 -0.004445856793704932    2    2    9    4
 -3.719951361568233e-05    2    2    9    5
 8.310201692374224e-05    2    2    9    6
 0.06410142330290286    2    2    9    8
 0.4615457329704565    2    2    9    9
 0.004386832135667478    2    2   10    3
 0.0641315170002256    2    2   10    7
 0.4615331707892656    2    2   10   10
 0.001338691886620571    2    2   11    1
 -0.06377067869065238    2    2   11    2
 -2.533746035222121e-05    2    2   11    4
 0.05579352479294582    2    2   11    5
 -0.09625412646933995    2    2   11    6
 3.397616621001784e-05    2    2   11    8
 2.255216788145921e-05    2    2   11    9
 0.4809922012030994    2    2   11   11
 0.01166182759194053    2    2   12    1
 0.000948542421590893    2    2   12    2
 -3.996718312725132e-05    2    2   12    4
 -0.1320245252151929    2    2   12    5
 0.01958998300946817    2    2   12    6
 -2.128128915844501e-05    2    2   12    8
 1.407801495849484e-05    2    2   12    9
 -0.02232008662020961    2    2   12   11
 0.5132575766642909    2    2   12   12
 0.1083507579747596    2    2   13    3
 -0.111007189583519    2    2   13    7
 -0.02296243089719295    2    2   13   10
 0.4947152810307579    2    2   13   13
 3.688245288272385e-06    2    2   14    1
 2.874249629778521e-05    2    2   14    2
 -0.1083491117665178    2    2   14    4
 3.35813256902616e-05    2    2   14    5
 -8.814362249783824e-08    2    2   14    6
 -0.1110149629197188    2    2   14    8
 -0.02297607839903323    2    2   14    9
 -2.843963426064736e-05    2    2   14   11
 -1.72422697193134e-05    2    2   14   12
 0.4947319770382692    2    2   14   14
 -0.01496492735275293    2    2   15    3
 -0.001366301745068412    2    2   15    7
 0.008196239010224128    2    2   15   10
 0.01088910200684905    2    2   15   13
 0.5044543492711393    2    2   15   15
 4.543655779315637e-06    2    2   16    1
 -3.049195871398405e-05    2    2   16    2
 0.01496443637237116    2    2   16    4
 -1.369060280718898e-05    2    2   16    5
 -1.975799477588427e-05    2    2   16    6
 -0.001356233855895525    2    2   16    8
 0.008180930659093278    2    2   16    9
 4.116426381413301e-07    2    2   16   11
 1.158792069824424e-05    2    2   16   12
 0.01087810904733357    2    2   16   14
 0.5044688845150176    2    2   16   16
 0.006765771040621993    2    2   17    1
 -0.07206448542200766    2    2   17    2
 -1.118853427626485e-05    2    2   17    4
 -0.0398826077329651    2    2   17    5
 -0.06805754747788659    2    2   17    6
 1.14336309114952e-05    2    2   17    8
 1.581627624692335e-06    2    2   17    9
 -0.002551774005302996    2    2   17   11
 -0.01785217815168073    2    2   17   12
 -5.216159215474508e-06    2    2   17   14
 -2.158021625721405e-05    2    2   17   16
 0.492450403692295    2    2   17   17
 -5.115613102724986e-06    2    2   18    3
 7.426187679527373e-06    2    2   18    7
 1.578010579650986e-06    2    2   18   10
 -3.369212393160907e-06    2    2   18   13
 -2.89797282023432e-05    2    2   18   15
 0.461366311211847    2    2   18   18
 0.005162104299818733    2    2   19    1
 -0.03266135651457969    2    2   19    2
 -4.711025756938351e-07    2    2   19    4
 -0.002278185222335729    2    2   19    5
 -0.03449242427555761    2    2   19    6
 -9.690340131938967e-06    2    2   19    8
 -7.108548305549838e-05    2    2   19    9
 0.02392930699242998    2    2   19   11
 0.02624480836402526    2    2   19   12
 -2.103550681948024e-06    2    2   19   14
 3.195581341791959e-05    2    2   19   16
 0.007133319821547911    2    2   19   17
 0.4806291700674228    2    2   19   19
 -0.003506932744091579    2    2   20    3
 -0.002315794157640983    2    2   20    7
 -0.02490267829845401    2    2   20   10
 -0.01711755455299491    2    2   20   13
 -0.005750556134579454    2    2   20   15
 3.524471157589293e-05    2    2   20   18
 0.4522748203706957    2    2   20   20
 -2.255014808692454e-06    2    2   21    1
 1.735847438180382e-05    2    2   21    2
 0.003516132658814988    2    2   21    4
 4.131754321885568e-06    2    2   21    5
 1.152312480714082e-05    2    2   21    6
 -0.002301270912638879    2    2   21    8
 -0.02486902605296835    2    2   21    9
 9.044540890287752e-08    2    2   21   11
 -1.183674363610821e-05    2    2   21   12
 -0.0171323577392117    2    2   21   14
 -0.005701431422205146    2    2   21   16
 -2.306048597331302e-05    2    2   21   17
 6.889825529239907e-06    2    2   21   19
 0.4522755394906239    2    2   21   21
 0.0120281546278358    2    2   22    3
 0.0136395698829397    2    2   22    7
 0.08341214973793872    2    2   22   10
 -0.0595874010160176    2    2   22   13
 -0.01741586006208625    2    2   22   15
 1.320331259716377e-05    2    2   22   18
 -0.003164334019084016    2    2   22   20
 0.5448934692676143    2    2   22   22
 -3.434826017202831e-06    2    2   23    1
 3.838007829905895e-06    2    2   23    2
 -0.01205857628701323    2    2   23    4
 -1.221066538618722e-05    2    2   23    5
 9.216188367650667e-06    2    2   23    6
 0.01361706876522802    2    2   23    8
 0.08340924093032964    2    2   23    9
 1.636324165670675e-05    2    2   23   11
 2.314779606822476e-05    2    2   23   12
 -0.05956921289387323    2    2   23   14
 -0.01739447613915586    2    2   23   16
 -1.166646625754488e-05    2    2   23   17
 -1.799706011143995e-05    2    2   23   19
 -0.003144200378364231    2    2   23   21
 0.544931050507992    2    2   23   23
 -0.0004768450074929364    2    2   24    1
 0.008477886968203584    2    2   24    2
 1.352541527366766e-05    2    2   24    4
 -0.02618715482641371    2    2   24    5
 0.02217909374273684    2    2   24    6
 5.163021037273812e-06    2    2   24    8
 3.932029084283253e-05    2    2   24    9
 -0.1002499543878656    2    2   24   11
 0.02695742196500367    2    2   24   12
 4.783110008047325e-07    2    2   24   14
 3.083243968652468e-05    2    2   24   16
 0.01841765095201798    2    2   24   17
 -0.04592700389846579    2    2   24   19
 1.701104099076922e-05    2    2   24   21
 -3.975525943284503e-05    2    2   24   23
 0.5474301804605858    2    2   24   24
 2.124867395751998e-06    2    2   25    1
 -2.195247773423054e-06    2    2   25    2
 -0.01396545585247132    2    2   25    4
 -2.121141681500349e-05    2    2   25    5
 -7.08094846575154e-06    2    2   25    6
 -0.01075800511429605    2    2   25    8
 -0.01990378911960547    2    2   25    9
 9.630439757995512e-06    2    2   25   11
 2.202841480388549e-05    2    2   25   12
 0.0237185708195804    2    2   25   14
 -0.08719767528604043    2    2   25   16
 6.313134881854908e-05    2    2   25   17
 3.496702782311818e-06    2    2   25   19
 0.02354588629126508    2    2   25   21
 -0.00332123176383118    2    2   25   23
 1.977096991942873e-05    2    2   25   24
 0.5613274441394795    2    2   25   25
 0.01398426087199759    2    2   26    3
 -0.01077195454702666    2    2   26    7
 -0.01990462546964724    2    2   26   10
 0.02374768868609193    2    2   26   13
 -0.08719370954830161    2    2   26   15
 -2.011774084702917e-05    2    2   26   18
 0.02353617040259433    2    2   26   20
 -0.003323053875496226    2    2   26   22
 0.561340585287001    2    2   26   26
 -0.001503983697958215    2    2   27    1
 0.01499767019777372    2    2   27    2
 2.618812156742739e-06    2    2   27    4
 0.01064984493706838    2    2   27    5
 0.01559000329098819    2    2   27    6
 -7.136257350355838e-06    2    2   27    8
 -8.949243743478402e-07    2    2   27    9
 -0.065075802048215    2    2   27   11
 0.02220195933658707    2    2   27   12
 1.277451037312047e-05    2    2   27   14
 -5.995438163982555e-05    2    2   27   16
 -0.07760274650939512    2    2   27   17
 0.02455212635949808    2    2   27   19
 5.914799486038397e-06    2    2   27   21
 -4.599200267691435e-05    2    2   27   23
 -0.01454630446222215    2    2   27   24
 1.403744155846749e-05    2    2   27   25